# vtk DataFile Version 3.0
vtk output
ASCII
DATASET UNSTRUCTURED_GRID
POINTS 329 float
-0.692757 -0.194974 -0.694315 -0.579885 -0.169864 -0.796794 -0.546754 -0.354135 -0.758715 
-0.376422 -0.219156 -0.900154 -0.62349 0 -0.781832 -0.433884 0 -0.900969 
-0.927368 -0.203242 -0.314135 -0.951498 -0.270268 -0.14699 -0.983035 -0.126071 -0.13322 
-0.974928 -0.222521 0 -0.974928 0 -0.222521 -1 0 0 
-0.823685 -0.215665 -0.524434 -0.688603 -0.447992 -0.570201 -0.826667 -0.410302 -0.385063 
-0.781832 0 -0.62349 -0.900969 0 -0.433884 -0.566911 -0.676306 -0.470343 
-0.718846 -0.580484 -0.382492 -0.671579 -0.70355 -0.232378 -0.501486 -0.785048 -0.363609 
-0.385237 -0.752618 -0.534003 -0.469069 -0.595514 -0.652179 -0.340144 -0.466247 -0.816649 
-0.81951 -0.541134 -0.188618 -0.898158 -0.383618 -0.214825 -0.352073 -0.860906 -0.367268 
-0.513886 -0.841049 -0.168992 -0.230628 -0.667161 -0.708313 -0.185944 -0.826433 -0.531445 
-0.162296 -0.975824 -0.146378 -0.337869 -0.924636 -0.175765 -0.180752 -0.926221 -0.330823 
0 -0.974928 -0.222521 0 -0.900969 -0.433884 -0.222521 -0.974928 0 
-0.433884 -0.900969 0 -0.180894 -0.341788 -0.922203 -0.165767 -0.51357 -0.841883 
0 -1 0 -0.62349 -0.781832 0 -0.169718 -0.15646 -0.972993 
0 -0.222521 -0.974928 -0.222521 0 -0.974928 0 0 -1 
-0.900969 -0.433884 0 -0.781832 -0.62349 0 0 -0.781832 -0.62349 
0 -0.433884 -0.900969 0 -0.62349 -0.781832 -0.836457 -0.510146 0.200228 
-0.762225 -0.460791 0.454626 -0.872774 -0.342201 0.348086 -0.820739 -0.211964 0.530527 
-0.695098 -0.640672 0.326157 -0.660598 -0.381927 0.646329 -0.601343 -0.597779 0.530139 
-0.732636 -0.666555 0.137656 -0.575409 -0.794164 0.195467 -0.169514 -0.690554 0.703136 
-0.388199 -0.702296 0.596726 -0.183482 -0.815893 0.548319 -0.307647 -0.534682 0.787063 
-0.502496 -0.522516 0.688821 -0.52245 -0.752882 0.400268 -0.351586 -0.81913 0.453226 
-0.327666 -0.316543 0.890188 -0.331286 -0.151681 0.931259 -0.502155 -0.155558 0.850671 
-0.502086 -0.354943 0.788622 -0.433884 0 0.900969 -0.654614 -0.185407 0.732875 
-0.62349 0 0.781832 -0.173779 -0.427694 0.887062 -0.146398 -0.206607 0.96741 
0 -0.433884 0.900969 -0.222521 0 0.974928 0 0 1 
0 -0.222521 0.974928 0 -0.781832 0.62349 -0.133745 -0.560321 0.817406 
0 -0.62349 0.781832 -0.933892 -0.324615 0.149902 -0.936603 -0.165298 0.308952 
-0.225107 -0.908121 0.353049 0 -0.900969 0.433884 -0.37431 -0.9114 0.171001 
-0.162419 -0.972996 0.164007 0 -0.974928 0.222521 -0.43175 -0.846813 0.310643 
-0.976426 -0.154883 0.150345 -0.974928 0 0.222521 -0.781832 0 0.62349 
-0.900969 0 0.433884 -0.569823 0.804843 0.165921 -0.698544 0.674748 0.238225 
-0.560073 0.764223 0.319815 -0.62349 0.781832 0 -0.379883 0.897835 0.222667 
-0.433884 0.900969 0 -0.806728 0.472855 0.354398 -0.836669 0.520636 0.170069 
-0.781832 0.62349 0 -0.587495 0.663221 0.463667 -0.697881 0.554629 0.453154 
-0.945554 0.154302 0.286564 -0.921269 0.340352 0.18821 -0.97892 0.14501 0.143835 
-0.864833 0.263103 0.427598 -0.726618 0.364825 0.582177 -0.770166 0.157679 0.618046 
-0.622591 0.256662 0.73926 -0.584994 0.476989 0.655945 -0.900969 0.433884 0 
-0.132548 0.723984 0.676963 -0.287563 0.75824 0.585132 -0.220377 0.608107 0.762654 
-0.151347 0.82307 0.547404 -0.207168 0.897948 0.388292 -0.432414 0.783847 0.445648 
-0.431485 0.625281 0.650265 0 0.62349 0.781832 0 0.781832 0.62349 
-0.974928 0.222521 0 -0.168557 0.971088 0.169048 0 0.900969 0.433884 
0 0.974928 0.222521 -0.222521 0.974928 0 -0.482788 0.340956 0.806638 
-0.457779 0.17674 0.871322 -0.379052 0.479309 0.79157 -0.156635 0.485945 0.859839 
-0.320494 0.319961 0.891577 -0.219887 0.149343 0.964026 -0.147887 0.32537 0.933951 
0 0.222521 0.974928 0 0.433884 0.900969 0 1 0 
-0.574532 0.626006 -0.527285 -0.642466 0.443128 -0.6252 -0.718009 0.506076 -0.47786 
-0.803069 0.318337 -0.503728 -0.683941 0.642844 -0.34493 -0.815587 0.47604 -0.328944 
-0.522938 0.765687 -0.374514 -0.33744 0.857183 -0.389064 -0.373009 0.71366 -0.592919 
-0.469219 0.865586 -0.174914 -0.655761 0.733547 -0.178567 -0.523905 0.205982 -0.826496 
-0.431533 0.404871 -0.806138 -0.317294 0.221032 -0.922209 -0.206591 0.466284 -0.860174 
-0.145999 0.292454 -0.945069 -0.129172 0.135999 -0.982252 -0.49014 0.538463 -0.685434 
-0.336125 0.562037 -0.755734 -0.170648 0.677452 -0.715499 -0.557777 0.372579 -0.741666 
-0.270509 0.943266 -0.192546 -0.172421 0.910135 -0.37673 -0.191178 0.826526 -0.529439 
0 0.974928 -0.222521 -0.685112 0.209445 -0.697678 -0.896632 0.309608 -0.316535 
-0.91599 0.145941 -0.373717 -0.972082 0.161533 -0.17019 -0.907724 0.390209 -0.154187 
0 0.222521 -0.974928 0 0.900969 -0.433884 0 0.781832 -0.62349 
-0.798873 0.578449 -0.164922 0 0.433884 -0.900969 -0.837625 0.127868 -0.531069 
0 0.62349 -0.781832 0.178729 -0.660529 0.729217 0.343084 -0.458678 0.8197 
0.15058 -0.51922 0.841271 0.387272 -0.662773 0.6409 0.197673 -0.792077 0.577529 
0.285761 -0.946558 0.149562 0.204355 -0.918767 0.337797 0.147554 -0.977974 0.147629 
0.395489 -0.882754 0.25364 0.222521 -0.974928 0 0.433884 -0.900969 0 
0.713767 -0.387687 0.583297 0.603238 -0.588999 0.537759 0.75185 -0.52398 0.400207 
0.846203 -0.380364 0.373182 0.521574 -0.454882 0.721833 0.700619 -0.189227 0.687987 
0.607454 -0.314677 0.729368 0.830041 -0.194634 0.522637 0.709325 -0.693718 0.124951 
0.675045 -0.67208 0.30434 0.556469 -0.81499 0.161661 0.824811 -0.539027 0.170692 
0.62349 -0.781832 0 0.781832 -0.62349 0 0.33688 -0.817353 0.467382 
0.494314 -0.767993 0.407236 0.200374 -0.346102 0.91655 0.552161 -0.154865 0.819228 
0.415962 -0.266887 0.869337 0.433884 0 0.900969 0.62349 0 0.781832 
0.223498 -0.146923 0.963567 0.222521 0 0.974928 0.781832 0 0.62349 
0.906563 -0.391482 0.157751 0.925879 -0.227662 0.301526 0.900969 -0.433884 0 
0.974928 -0.222521 0 0.900969 0 0.433884 0.974928 0 0.222521 
1 0 0 0.293475 0.944676 0.146489 0.160909 0.942676 0.292352 
0.128096 0.983804 0.125381 0.34486 0.88238 0.320121 0.209707 0.829748 0.517243 
0.47824 0.865097 0.151306 0.675775 0.722194 0.147525 0.513955 0.798862 0.312523 
0.62349 0.781832 0 0.433884 0.900969 0 0.201347 0.342666 0.917627 
0.407729 0.219708 0.886276 0.271277 0.145197 0.951486 0.130377 0.13239 0.982586 
0.434614 0.411259 0.801234 0.306946 0.535583 0.786724 0.145534 0.53407 0.83282 
0.650655 0.415667 0.635507 0.806658 0.299953 0.509246 0.704503 0.176126 0.6875 
0.846841 0.153462 0.509225 0.799387 0.438883 0.41032 0.895255 0.318023 0.312059 
0.866297 0.210316 0.433567 0.563332 0.278925 0.777726 0.549453 0.116049 0.827426 
0.719437 0.622956 0.307141 0.808702 0.571025 0.141179 0.781832 0.62349 0 
0.222521 0.974928 0 0.836805 0.48356 0.256765 0.909121 0.387914 0.151726 
0.966327 0.160594 0.201051 0.900969 0.433884 0 0.974928 0.222521 0 
0.420671 0.773211 0.474531 0.189518 0.660766 0.726272 0.341698 0.691299 0.636669 
0.618693 0.620092 0.482395 0.475749 0.58678 0.65525 0.925928 0.120691 0.357897 
0.795703 0.58355 -0.162254 0.638745 0.716624 -0.280096 0.673468 0.727816 -0.129328 
0.521985 0.834714 -0.175452 0.213303 0.535832 -0.816937 0.400662 0.60747 -0.685894 
0.389058 0.446595 -0.805721 0.187208 0.687769 -0.701375 0.530245 0.477609 -0.700522 
0.604778 0.567934 -0.558297 0.457427 0.7154 -0.52817 0.317266 0.728217 -0.607488 
0.229671 0.385241 -0.893779 0.899891 0.214778 -0.379561 0.820461 0.138572 -0.554654 
0.785763 0.299471 -0.541197 0.820178 0.403567 -0.405514 0.710298 0.184999 -0.679155 
0.657225 0.375657 -0.653404 0.734212 0.447457 -0.510602 0.746117 0.554547 -0.368492 
0.898797 0.378121 -0.221783 0.192963 0.809132 -0.555041 0.220984 0.898995 -0.378119 
0.338993 0.803641 -0.489126 0.350932 0.919103 -0.179156 0.184864 0.968552 -0.166528 
0.455278 0.812261 -0.364629 0.900969 0 -0.433884 0.971236 0.169604 -0.16714 
0.974928 0 -0.222521 0.546443 0.249285 -0.799535 0.343164 0.216554 -0.913971 
0.581194 0.694404 -0.424284 0.433884 0 -0.900969 0.62349 0 -0.781832 
0.147362 0.225564 -0.963019 0.222521 0 -0.974928 0.781832 0 -0.62349 
0.65879 -0.606412 -0.445265 0.760166 -0.473399 -0.445018 0.612605 -0.486545 -0.622887 
0.477091 -0.647636 -0.594097 0.658953 -0.714971 -0.233663 0.763242 -0.589232 -0.265079 
0.4942 -0.756472 -0.428388 0.354346 -0.767622 -0.534038 0.23253 -0.681889 -0.693511 
0.190956 -0.818879 -0.541269 0.16281 -0.918635 -0.360003 0.334252 -0.875143 -0.349858 
0.341697 -0.336123 -0.877647 0.441869 -0.219464 -0.869821 0.302404 -0.157543 -0.94007 
0.163524 -0.284796 -0.944537 0.129095 -0.126426 -0.98354 0.41039 -0.516456 -0.751568 
0.503555 -0.353301 -0.788423 0.193543 -0.487149 -0.851603 0.482971 -0.850144 -0.209749 
0.338224 -0.928614 -0.152579 0.933922 -0.290583 -0.208207 0.918405 -0.154316 -0.364306 
0.847348 -0.328861 -0.416956 0.856251 -0.468355 -0.217893 0.706291 -0.306608 -0.638079 
0.807834 -0.159896 -0.567307 0.58958 -0.168799 -0.789875 0.974187 -0.136198 -0.180028 
0.19493 -0.963513 -0.183423 0.710698 -0.114319 -0.694147 
CELLS 654 2616
3 0 1 2 
3 1 3 2 
3 1 0 4 
3 3 1 5 
3 5 1 4 
3 6 7 8 
3 8 7 9 
3 10 6 8 
3 9 11 8 
3 11 10 8 
3 12 13 14 
3 6 12 14 
3 0 13 12 
3 15 0 12 
3 12 6 16 
3 16 15 12 
3 13 17 18 
3 17 19 18 
3 20 17 21 
3 17 20 19 
3 21 17 22 
3 17 13 22 
3 2 23 22 
3 3 23 2 
3 22 13 2 
3 13 0 2 
3 13 18 14 
3 18 24 14 
3 24 25 14 
3 25 6 14 
3 24 18 19 
3 26 20 21 
3 26 27 20 
3 20 27 19 
3 28 21 22 
3 29 26 21 
3 21 28 29 
3 30 31 32 
3 31 26 32 
3 33 30 32 
3 26 29 32 
3 34 32 29 
3 34 33 32 
3 31 30 35 
3 27 26 31 
3 36 27 31 
3 35 36 31 
3 23 28 22 
3 37 23 3 
3 23 37 38 
3 28 23 38 
3 30 39 35 
3 39 30 33 
3 27 40 19 
3 40 27 36 
3 3 41 37 
3 42 37 41 
3 41 3 43 
3 44 41 43 
3 41 44 42 
3 6 25 7 
3 25 45 7 
3 7 45 9 
3 45 25 24 
3 19 46 24 
3 46 45 24 
3 28 47 29 
3 29 47 34 
3 37 48 38 
3 48 37 42 
3 0 15 4 
3 3 5 43 
3 49 28 38 
3 48 49 38 
3 40 46 19 
3 47 28 49 
3 6 10 16 
3 50 51 52 
3 52 51 53 
3 54 51 50 
3 55 51 56 
3 51 54 56 
3 51 55 53 
3 57 54 50 
3 50 46 57 
3 54 57 58 
3 57 40 58 
3 46 40 57 
3 59 60 61 
3 60 59 62 
3 60 63 56 
3 60 56 64 
3 60 65 61 
3 62 63 60 
3 65 60 64 
3 66 67 68 
3 69 66 68 
3 67 70 68 
3 68 71 69 
3 72 71 68 
3 70 72 68 
3 73 74 66 
3 66 74 67 
3 74 73 75 
3 74 76 67 
3 77 74 78 
3 74 77 76 
3 74 75 78 
3 79 59 61 
3 62 59 80 
3 80 59 81 
3 59 79 81 
3 52 82 50 
3 83 82 52 
3 83 52 53 
3 82 45 50 
3 45 46 50 
3 63 55 56 
3 56 54 64 
3 65 84 61 
3 84 85 61 
3 85 79 61 
3 86 87 84 
3 86 35 87 
3 88 84 87 
3 39 88 87 
3 35 39 87 
3 58 86 89 
3 86 58 36 
3 89 86 84 
3 35 86 36 
3 90 82 83 
3 82 90 9 
3 45 82 9 
3 55 63 69 
3 63 62 69 
3 71 55 69 
3 55 71 53 
3 54 58 64 
3 64 58 89 
3 58 40 36 
3 62 73 66 
3 69 62 66 
3 84 65 89 
3 89 65 64 
3 88 85 84 
3 73 62 80 
3 75 73 80 
3 80 81 75 
3 70 67 76 
3 91 90 83 
3 90 11 9 
3 11 90 91 
3 71 92 53 
3 93 83 53 
3 92 93 53 
3 71 72 92 
3 83 93 91 
3 94 95 96 
3 97 95 94 
3 98 94 96 
3 94 98 99 
3 99 97 94 
3 100 95 101 
3 95 102 101 
3 95 103 96 
3 95 100 104 
3 95 104 103 
3 95 97 102 
3 105 106 107 
3 91 105 107 
3 105 108 106 
3 93 108 105 
3 105 91 93 
3 109 110 111 
3 108 110 109 
3 111 112 109 
3 104 100 109 
3 100 108 109 
3 112 104 109 
3 106 100 101 
3 113 106 101 
3 102 113 101 
3 110 72 111 
3 108 93 110 
3 93 92 110 
3 92 72 110 
3 114 115 116 
3 115 114 117 
3 115 118 119 
3 118 115 117 
3 120 116 115 
3 120 115 119 
3 116 121 114 
3 117 114 122 
3 121 122 114 
3 119 98 96 
3 119 96 103 
3 106 123 107 
3 11 91 107 
3 123 11 107 
3 118 98 119 
3 98 118 124 
3 125 118 117 
3 118 126 124 
3 126 118 125 
3 127 98 124 
3 98 127 99 
3 128 112 111 
3 128 111 129 
3 72 129 111 
3 116 130 131 
3 130 116 120 
3 121 116 131 
3 132 133 134 
3 131 132 134 
3 132 128 129 
3 128 132 130 
3 133 132 129 
3 130 132 131 
3 108 100 106 
3 135 134 133 
3 134 136 131 
3 136 134 135 
3 104 112 103 
3 103 112 120 
3 103 120 119 
3 130 112 128 
3 112 130 120 
3 129 70 133 
3 72 70 129 
3 122 125 117 
3 77 133 76 
3 133 77 135 
3 70 76 133 
3 106 113 123 
3 136 121 131 
3 124 137 127 
3 126 137 124 
3 138 139 140 
3 139 141 140 
3 142 138 140 
3 141 143 140 
3 143 142 140 
3 144 145 146 
3 145 144 147 
3 138 144 146 
3 144 138 142 
3 148 144 142 
3 144 148 147 
3 149 150 151 
3 150 152 151 
3 151 153 154 
3 154 43 151 
3 153 151 152 
3 5 149 151 
3 43 5 151 
3 150 155 156 
3 152 150 156 
3 155 146 156 
3 152 156 157 
3 156 146 157 
3 158 155 150 
3 149 158 150 
3 145 159 160 
3 159 145 147 
3 161 145 160 
3 145 161 146 
3 159 162 160 
3 99 159 147 
3 159 99 127 
3 162 159 127 
3 139 138 155 
3 141 139 163 
3 155 158 139 
3 158 163 139 
3 164 165 166 
3 165 10 166 
3 166 167 164 
3 123 167 166 
3 11 123 166 
3 10 11 166 
3 155 138 146 
3 154 153 168 
3 168 44 154 
3 44 43 154 
3 161 160 169 
3 146 161 157 
3 161 170 157 
3 170 161 169 
3 171 148 142 
3 148 171 102 
3 147 148 97 
3 148 102 97 
3 172 153 152 
3 153 172 168 
3 165 141 173 
3 165 173 16 
3 141 165 164 
3 10 165 16 
3 167 171 143 
3 171 167 113 
3 143 171 142 
3 113 102 171 
3 141 163 173 
3 163 15 173 
3 15 16 173 
3 143 141 164 
3 164 167 143 
3 167 123 113 
3 163 158 149 
3 4 163 149 
3 15 163 4 
3 160 162 169 
3 5 4 149 
3 174 152 157 
3 170 174 157 
3 152 174 172 
3 97 99 147 
3 127 137 162 
3 175 176 177 
3 177 81 175 
3 178 176 175 
3 175 179 178 
3 175 79 179 
3 81 79 175 
3 180 181 182 
3 181 180 183 
3 184 180 182 
3 180 185 183 
3 185 180 184 
3 186 187 188 
3 186 188 189 
3 187 186 190 
3 186 191 192 
3 191 186 193 
3 193 186 189 
3 186 192 190 
3 194 195 196 
3 195 194 197 
3 198 194 196 
3 197 194 199 
3 194 198 199 
3 181 88 182 
3 200 179 181 
3 179 85 181 
3 183 200 181 
3 85 88 181 
3 195 188 187 
3 188 195 197 
3 187 201 195 
3 196 195 201 
3 39 184 182 
3 88 39 182 
3 189 188 197 
3 177 176 202 
3 177 202 75 
3 81 177 75 
3 203 204 192 
3 204 203 205 
3 191 203 192 
3 203 191 206 
3 206 205 203 
3 204 176 190 
3 176 204 202 
3 176 178 190 
3 187 178 201 
3 178 187 190 
3 202 204 207 
3 207 204 205 
3 192 204 190 
3 78 202 207 
3 207 77 78 
3 77 207 208 
3 205 208 207 
3 193 209 191 
3 209 206 191 
3 210 189 197 
3 189 210 211 
3 212 210 197 
3 210 213 211 
3 213 210 212 
3 179 200 178 
3 178 200 201 
3 193 189 211 
3 85 179 79 
3 196 201 183 
3 200 183 201 
3 183 185 196 
3 185 198 196 
3 211 214 193 
3 214 209 193 
3 199 212 197 
3 202 78 75 
3 215 211 213 
3 214 211 215 
3 216 215 213 
3 217 218 219 
3 220 218 217 
3 218 126 219 
3 220 221 218 
3 221 125 218 
3 218 125 126 
3 222 223 224 
3 222 225 223 
3 217 222 220 
3 226 222 217 
3 222 224 220 
3 226 225 222 
3 227 228 229 
3 230 227 229 
3 231 228 227 
3 135 227 230 
3 232 227 233 
3 136 233 227 
3 232 231 227 
3 135 136 227 
3 229 228 205 
3 230 229 208 
3 229 205 208 
3 234 235 236 
3 235 237 236 
3 238 239 235 
3 240 235 239 
3 234 238 235 
3 235 240 237 
3 241 242 228 
3 228 242 205 
3 241 228 231 
3 223 243 224 
3 223 244 243 
3 244 223 245 
3 245 223 225 
3 241 236 242 
3 236 206 242 
3 234 236 241 
3 237 209 236 
3 206 236 209 
3 208 77 230 
3 135 230 77 
3 246 217 219 
3 246 226 217 
3 247 248 239 
3 248 249 239 
3 244 248 247 
3 244 250 248 
3 248 251 249 
3 251 248 250 
3 137 246 219 
3 126 137 219 
3 221 220 252 
3 220 224 252 
3 253 221 254 
3 253 122 221 
3 233 253 232 
3 253 233 121 
3 232 253 254 
3 121 122 253 
3 238 255 243 
3 224 243 255 
3 224 255 252 
3 252 255 256 
3 238 234 255 
3 255 234 256 
3 254 221 252 
3 221 122 125 
3 238 243 247 
3 243 244 247 
3 242 206 205 
3 239 238 247 
3 239 249 257 
3 257 239 240 
3 252 256 254 
3 257 249 215 
3 257 240 237 
3 237 257 214 
3 257 215 214 
3 231 234 241 
3 256 234 231 
3 121 233 136 
3 244 245 250 
3 249 216 215 
3 251 216 249 
3 214 209 237 
3 256 231 232 
3 254 256 232 
3 258 259 260 
3 260 245 258 
3 259 261 260 
3 261 225 260 
3 225 245 260 
3 262 263 264 
3 265 263 262 
3 264 263 266 
3 263 267 266 
3 267 263 268 
3 268 263 269 
3 263 265 269 
3 262 264 270 
3 262 174 265 
3 172 262 270 
3 172 174 262 
3 271 272 273 
3 274 271 273 
3 273 272 275 
3 276 277 273 
3 273 277 274 
3 275 276 273 
3 278 259 258 
3 279 278 258 
3 279 258 250 
3 245 250 258 
3 280 281 282 
3 281 280 169 
3 283 281 284 
3 162 284 281 
3 281 285 282 
3 283 285 281 
3 169 162 281 
3 272 271 286 
3 287 271 279 
3 271 274 279 
3 288 271 287 
3 271 288 286 
3 266 289 264 
3 264 289 290 
3 270 264 290 
3 259 278 291 
3 278 277 267 
3 278 267 291 
3 277 278 274 
3 278 279 274 
3 269 280 282 
3 280 269 265 
3 265 170 280 
3 280 170 169 
3 246 283 284 
3 137 246 284 
3 137 284 162 
3 285 268 282 
3 268 269 282 
3 289 266 276 
3 276 266 267 
3 285 283 261 
3 261 283 226 
3 283 246 226 
3 289 292 290 
3 289 276 275 
3 293 289 275 
3 289 293 292 
3 290 294 270 
3 294 172 270 
3 295 294 290 
3 294 44 168 
3 44 294 295 
3 172 294 168 
3 259 285 261 
3 285 259 291 
3 267 268 291 
3 268 285 291 
3 174 170 265 
3 277 276 267 
3 272 296 275 
3 296 272 286 
3 226 225 261 
3 292 295 290 
3 251 287 279 
3 251 279 250 
3 296 293 275 
3 216 287 251 
3 287 216 288 
3 297 298 299 
3 299 300 297 
3 297 301 302 
3 298 297 302 
3 303 301 297 
3 300 303 297 
3 304 305 306 
3 306 305 47 
3 306 307 308 
3 306 308 304 
3 34 307 306 
3 306 47 34 
3 309 310 311 
3 292 311 310 
3 309 311 312 
3 312 311 313 
3 295 313 311 
3 292 295 311 
3 314 300 299 
3 314 299 315 
3 305 300 314 
3 305 314 316 
3 309 316 314 
3 315 309 314 
3 303 317 301 
3 198 301 317 
3 308 318 317 
3 303 308 317 
3 185 317 318 
3 198 317 185 
3 319 320 321 
3 321 322 319 
3 323 298 321 
3 321 298 322 
3 321 320 324 
3 321 324 323 
3 310 315 325 
3 310 325 292 
3 310 309 315 
3 299 298 323 
3 315 299 323 
3 199 302 301 
3 298 302 322 
3 199 322 302 
3 199 301 198 
3 300 305 304 
3 49 305 316 
3 305 49 47 
3 319 326 320 
3 319 213 326 
3 320 326 288 
3 216 326 213 
3 216 288 326 
3 308 327 318 
3 308 307 327 
3 304 308 303 
3 322 212 319 
3 319 212 213 
3 320 286 324 
3 328 323 324 
3 324 296 328 
3 286 296 324 
3 323 328 325 
3 323 325 315 
3 293 325 328 
3 325 293 292 
3 312 316 309 
3 312 313 42 
3 312 48 316 
3 48 312 42 
3 327 184 318 
3 185 318 184 
3 320 288 286 
3 33 327 307 
3 39 184 327 
3 39 327 33 
3 300 304 303 
3 34 33 307 
3 296 293 328 
3 199 212 322 
3 42 313 44 
3 295 44 313 
3 49 316 48 

CELL_TYPES 654
5
5
5
5
5
5
5
5
5
5
5
5
5
5
5
5
5
5
5
5
5
5
5
5
5
5
5
5
5
5
5
5
5
5
5
5
5
5
5
5
5
5
5
5
5
5
5
5
5
5
5
5
5
5
5
5
5
5
5
5
5
5
5
5
5
5
5
5
5
5
5
5
5
5
5
5
5
5
5
5
5
5
5
5
5
5
5
5
5
5
5
5
5
5
5
5
5
5
5
5
5
5
5
5
5
5
5
5
5
5
5
5
5
5
5
5
5
5
5
5
5
5
5
5
5
5
5
5
5
5
5
5
5
5
5
5
5
5
5
5
5
5
5
5
5
5
5
5
5
5
5
5
5
5
5
5
5
5
5
5
5
5
5
5
5
5
5
5
5
5
5
5
5
5
5
5
5
5
5
5
5
5
5
5
5
5
5
5
5
5
5
5
5
5
5
5
5
5
5
5
5
5
5
5
5
5
5
5
5
5
5
5
5
5
5
5
5
5
5
5
5
5
5
5
5
5
5
5
5
5
5
5
5
5
5
5
5
5
5
5
5
5
5
5
5
5
5
5
5
5
5
5
5
5
5
5
5
5
5
5
5
5
5
5
5
5
5
5
5
5
5
5
5
5
5
5
5
5
5
5
5
5
5
5
5
5
5
5
5
5
5
5
5
5
5
5
5
5
5
5
5
5
5
5
5
5
5
5
5
5
5
5
5
5
5
5
5
5
5
5
5
5
5
5
5
5
5
5
5
5
5
5
5
5
5
5
5
5
5
5
5
5
5
5
5
5
5
5
5
5
5
5
5
5
5
5
5
5
5
5
5
5
5
5
5
5
5
5
5
5
5
5
5
5
5
5
5
5
5
5
5
5
5
5
5
5
5
5
5
5
5
5
5
5
5
5
5
5
5
5
5
5
5
5
5
5
5
5
5
5
5
5
5
5
5
5
5
5
5
5
5
5
5
5
5
5
5
5
5
5
5
5
5
5
5
5
5
5
5
5
5
5
5
5
5
5
5
5
5
5
5
5
5
5
5
5
5
5
5
5
5
5
5
5
5
5
5
5
5
5
5
5
5
5
5
5
5
5
5
5
5
5
5
5
5
5
5
5
5
5
5
5
5
5
5
5
5
5
5
5
5
5
5
5
5
5
5
5
5
5
5
5
5
5
5
5
5
5
5
5
5
5
5
5
5
5
5
5
5
5
5
5
5
5
5
5
5
5
5
5
5
5
5
5
5
5
5
5
5
5
5
5
5
5
5
5
5
5
5
5
5
5
5
5
5
5
5
5
5
5
5
5
5
5
5
5
5
5
5
5
5
5
5
5
5
5
5
5
5
5
5
5
5
5
5
5
5
5
5
5
5
5
5
5
5
5
5
5
5
5
5
5
5
5
5
5
5
5
5
5
5
5
5
5
5
5
5
5
5
5
5
5
5
5
5
5
5
5
5
5
5
5
5
5
5
5
5
5
5
5
5
5
5
5

CELL_DATA 654
SCALARS scalars double 3
LOOKUP_TABLE default
0.00622493 0.00267126 0.00751079 0.00491398 0.00262382 0.00842178 0.00743244 0.00116181 0.00847091 
0.00548644 0.00147606 0.010096 0.0058484 0.000681472 0.00930768 0.00911437 0.00179885 0.00203715 
0.00892406 0.00187406 0.000813704 0.00956512 0.00112863 0.00246173 0.00934104 0.00105248 0.000193513 
0.0099879 0.000154835 0.00112537 0.00947617 0.00428968 0.00619345 0.00997429 0.00323175 0.00472668 
0.00726094 0.00304627 0.00596709 0.00865307 0.0014658 0.00684752 0.010467 0.00162442 0.00506456 
0.0105152 0.00099401 0.00660714 0.00761732 0.00664965 0.0059208 0.00614647 0.00657684 0.00345647 
0.00593324 0.00927565 0.00581327 0.00791643 0.00921631 0.00453716 0.00503563 0.00709729 0.00586297 
0.0066657 0.00635686 0.00641109 0.00522906 0.00534682 0.00830133 0.00404039 0.00330281 0.00801772 
0.00584995 0.00490295 0.00684291 0.00642122 0.00327549 0.00646249 0.00835018 0.00536799 0.00513423 
0.00894824 0.00572197 0.00348482 0.00958046 0.0053143 0.00319028 0.010554 0.00381968 0.00383336 
0.00866639 0.00706761 0.00306536 0.00501839 0.00963089 0.00525674 0.00523646 0.0101569 0.00325627 
0.00718168 0.00973928 0.00326004 0.00334566 0.00636466 0.00608785 0.00291403 0.00802819 0.0046344 
0.00245474 0.00681884 0.00552028 0.00281571 0.0112297 0.00273831 0.0034739 0.0110134 0.00340746 
0.00136534 0.0118479 0.0030497 0.00250205 0.00903408 0.00442873 0.00169307 0.0119394 0.00589477 
0.000512313 0.00856577 0.00299729 0.00324266 0.0118463 0.00126158 0.0050519 0.0103885 0.00308246 
0.00572268 0.0119276 0.00152006 0.00425106 0.0121488 0.000686374 0.0035802 0.00601326 0.00753263 
0.00295836 0.0032297 0.00827146 0.00233913 0.00413664 0.00840659 0.00288433 0.00612552 0.00844427 
0.00149071 0.0132304 0.000532295 0.00044531 0.00940717 0.00105994 0.00739664 0.00920716 0.00157095 
0.00833363 0.0132629 0.000757467 0.00249274 0.00234041 0.0090884 0.00124528 0.00288316 0.0107943 
0.00329664 0.00124145 0.0104238 0.00110671 0.000494945 0.00982231 0.000552409 0.00112644 0.00999739 
0.00927867 0.00287482 0.00249234 0.00910576 0.00369614 0.000983989 0.00896617 0.0031374 0.000410036 
0.0107754 0.00562248 0.00145657 0.0083099 0.00717232 0.00147162 0.00983179 0.00617772 0.000733335 
0.00131113 0.00716411 0.00612012 0.000642732 0.00903052 0.00567425 0.00117421 0.00444951 0.00929515 
0.000679851 0.0039151 0.0111887 0.00823792 0.000771073 0.00823792 0.00372172 0.00101537 0.0106361 
0.000302788 0.00144423 0.00180774 0.000561137 0.00648293 0.0103175 0.0078932 0.0078932 0.00102556 
0.000195602 0.0015114 0.0015114 0.0117733 0.000898021 0.00411966 0.0117755 0.0067191 -0.00473958 
0.0117275 0.00482983 -0.00679269 0.0113845 0.00768584 -0.00481304 0.0114577 0.00823948 -0.00946359 
0.0103944 0.00857943 -0.00658159 0.0111829 0.00507497 -0.00801613 0.0092933 0.00731064 -0.00285448 
0.00917959 0.00658187 -0.0012215 0.0115354 0.0124007 -0.00399988 0.0104876 0.0120989 -0.00181637 
0.00847697 0.00847697 -0.000377519 0.00433211 0.0121733 -0.0102463 0.00608481 0.0128914 -0.0139275 
0.00925098 0.0116685 -0.011297 0.00904737 0.0124665 -0.00939259 0.00473833 0.0122868 -0.00879463 
0.00727279 0.0112964 -0.0130256 0.0082249 0.0138662 -0.00919097 0.0076524 0.00426114 -0.0164304 
0.00788638 0.00477985 -0.0153505 0.00633367 0.00158714 -0.0135057 0.00893982 0.00391234 -0.0125617 
0.0091458 0.0017043 -0.0122688 0.00835744 0.000632696 -0.0133008 0.00348662 0.00526838 -0.0156848 
0.00420949 0.00395766 -0.0155157 0.00143939 0.00547304 -0.0155503 0.00337439 0.00177323 -0.0145636 
0.00101827 0.00180384 -0.0160095 0.00181667 0.00125606 -0.0161234 0.00139023 0.00544182 -0.0155518 
0.00198066 0.0130607 -0.0107525 0.0044151 0.0120533 -0.0151192 0.00119783 0.00767051 -0.009117 
0.000962663 0.0140299 -0.0140299 0.0107645 0.00486993 -0.00288752 0.015274 0.00455852 -0.00430584 
0.0134247 0.00345169 -0.00629294 0.0101957 0.00497766 -0.0013891 0.00942575 0.0059226 -0.000781142 
0.0102696 0.00840979 -0.0103859 0.0119083 0.0129137 -0.00818881 0.00368873 0.0130846 -0.00696633 
0.00205588 0.013774 -0.00694384 0.000995847 0.013872 -0.00871635 0.00398164 0.0140963 -0.00351723 
0.00430861 0.015021 -0.00175584 0.00140592 0.0116128 -0.00351908 0.000648079 0.0123479 -0.00139128 
0.00142949 0.0126871 -0.000673272 0.00702192 0.0126646 -0.00296923 0.00703734 0.0124249 -0.00169374 
0.0049404 0.0136809 -0.00429552 0.00524117 0.0149784 -0.000912207 0.0158912 0.00399197 -0.00372782 
0.00976612 0.00244995 -0.00100489 0.00932296 0.00326225 -0.00033034 0.0105996 0.00789844 -0.0133056 
0.00707965 0.00777209 -0.013079 0.0102364 0.00513933 -0.0123779 0.0125182 0.00439905 -0.0108547 
0.0132078 0.0159433 -0.00662911 0.00856186 0.0128516 -0.00480453 0.00769783 0.012251 -0.00112053 
0.00501134 0.00734798 -0.0145702 0.00636516 0.00700351 -0.0135788 0.00521757 0.0137154 -0.0055964 
0.00881997 0.0162604 -0.00811592 0.00108857 0.0115952 -0.00405733 0.00403985 0.00926705 -0.0153229 
0.000920123 0.00511956 -0.00921899 0.000278916 0.00569308 -0.00906049 0.00469708 0.000496542 -0.0134235 
0.0159377 0.00165983 -0.00389263 0.00963175 0.00108524 -0.000392264 0.0109193 0.000467718 -0.00123031 
0.0139927 0.00262072 -0.0118318 0.0133171 0.00206377 -0.006529 0.0129739 0.00119386 -0.00815206 
0.0129768 0.00124814 -0.0129768 0.0147706 0.000722128 -0.00516847 0.0137071 -0.0164596 -0.00521287 
0.0127198 -0.0138078 -0.00219922 0.0100022 -0.0172627 -0.00519013 0.00995714 -0.0187036 -0.002678 
0.0119965 -0.0190924 -0.00123236 0.013826 -0.0102262 -0.00489657 0.0135471 -0.0111037 -0.00234712 
0.0152905 -0.0160472 -0.00835233 0.0160032 -0.0126821 -0.00713711 0.0151335 -0.0145896 -0.00820048 
0.0129464 -0.0129464 -0.00174063 0.0133644 -0.003283 -0.00291048 0.015252 -0.00146318 -0.00347019 
0.0135489 -0.00416809 -0.0045392 0.0154834 -0.00229595 -0.00709067 0.0154481 -0.000697253 -0.00540552 
0.0123776 -0.00456599 -0.011341 0.0147194 -0.00482383 -0.0099869 0.0117126 -0.00666789 -0.0123478 
0.0153101 -0.00882267 -0.00956901 0.0161978 -0.0077595 -0.00937696 0.0140104 -0.0100343 -0.0116409 
0.0159663 -0.007961 -0.00465703 0.0122171 -0.00589523 -0.0016119 0.0152544 -0.00958499 -0.000878118 
0.012621 -0.00228358 -0.0135011 0.0163167 -0.00246739 -0.00947647 0.0155717 -0.00148979 -0.00978433 
0.0137569 -0.00149267 -0.0137569 0.00515691 -0.0142874 -0.0140349 0.00370803 -0.0146044 -0.0117074 
0.00743739 -0.0204519 -0.0114782 0.00693115 -0.0220052 -0.0127874 0.00607359 -0.0131473 -0.0134176 
0.00816474 -0.0142753 -0.0110996 0.00192039 -0.0111566 -0.0131184 0.00166118 -0.0137491 -0.0107562 
0.000381077 -0.011546 -0.011546 0.00927862 -0.017386 -0.00670186 0.0119268 -0.0167508 -0.00948752 
0.0129204 -0.0034698 -0.00151127 0.0158495 -0.000532739 -0.00178581 0.0145242 -0.00163648 -0.000478803 
0.00758966 -0.0189546 -0.00790165 0.00601559 -0.0219353 -0.00625818 0.00190929 -0.0149125 -0.00768773 
0.00195276 -0.0160315 -0.0050042 0.0014393 -0.015715 -0.00549892 0.00707919 -0.0224503 -0.00276985 
0.00768889 -0.0219736 -0.00217392 0.0112748 -0.00731139 -0.0142471 0.0113809 -0.0050699 -0.0172715 
0.0120197 -0.0028125 -0.0167026 0.0055882 -0.0107376 -0.0171623 0.00659914 -0.0113006 -0.0141225 
0.00253358 -0.0133319 -0.0184199 0.00504401 -0.00545465 -0.01985 0.00464146 -0.00800182 -0.0178851 
0.00945353 -0.00628738 -0.0196172 0.00837432 -0.00824363 -0.0180387 0.00561097 -0.00320804 -0.0153466 
0.00558661 -0.00883111 -0.0173425 0.0191528 -0.00775474 -0.00701771 0.00271602 -0.00487719 -0.0220434 
0.00211947 -0.0086819 -0.0190609 0.000653947 -0.00678329 -0.0193855 0.0133516 -0.0123933 -0.0121773 
0.0104998 -0.0112934 -0.0110749 0.00934876 -0.0135998 -0.0105815 0.00941801 -0.00860307 -0.0141538 
0.00887519 -0.00969726 -0.0133108 0.00523184 -0.0016253 -0.0139059 0.00910937 -0.00120029 -0.0144975 
0.000666384 -0.0153507 -0.00964548 0.00257548 -0.00171402 -0.022858 0.00195393 -0.00252829 -0.0224392 
0.00480551 -0.00108726 -0.0137334 0.0124611 -0.00436034 -0.000822805 0.00103565 -0.012109 -0.0192713 
0.00189479 -0.0168167 -0.000986882 0.000949859 -0.0162294 -0.00182861 0.00985319 -0.00825277 0.00857767 
0.0088184 -0.00490725 0.00661783 0.00930974 -0.00851178 0.00637158 0.00773165 -0.00408748 0.00424176 
0.0114836 -0.00850645 0.00580895 0.00583167 -0.010778 0.00657068 0.00674304 -0.0129301 0.0046567 
0.00681132 -0.0103181 0.00713363 0.00817315 -0.00932385 0.00576463 0.00881757 -0.0105334 0.00424934 
0.0085797 -0.0122267 0.00381035 0.00424032 -0.00286024 0.00870359 0.00402316 -0.00470084 0.0114051 
0.00235846 -0.00226477 0.0105967 0.00263543 -0.00126759 0.0100523 0.0030281 -0.00396932 0.0102888 
0.00404867 -0.00131563 0.00853277 0.00324721 -0.000821069 0.00927999 0.00505434 -0.00597672 0.00906899 
0.00421715 -0.00600232 0.0107335 0.00504728 -0.00782752 0.00843287 0.00250538 -0.00687177 0.00940758 
0.0038186 -0.00855346 0.00883056 0.0059494 -0.00544961 0.0089202 0.00532108 -0.00336528 0.00873383 
0.00521444 -0.0176362 0.0059494 0.00602166 -0.0144341 0.0042718 0.00369532 -0.0130783 0.00670655 
0.00451648 -0.0113126 0.00717651 0.00244656 -0.016807 0.00432619 0.00544284 -0.0135505 0.00164156 
0.00491903 -0.0140578 0.00108567 0.00244677 -0.0185881 0.00244677 0.00746028 -0.00696784 0.00783798 
0.00835569 -0.00375487 0.00718994 0.00691641 -0.00569417 0.00847849 0.00776921 -0.00390337 0.00801383 
0.0089734 -0.00197832 0.00262462 0.0099148 -0.00108693 0.00281578 0.00975953 -0.00289387 0.00210355 
0.0134518 -0.00389932 0.00162231 0.0148539 -0.00167363 0.000848176 0.0109065 -0.000590295 0.00122886 
0.00739142 -0.00992584 0.00943863 0.00100473 -0.00238962 0.0105095 0.000204585 -0.00122807 0.0108995 
0.0011288 -0.000235275 0.0100184 0.00198378 -0.0160885 0.00856485 0.0037719 -0.0114874 0.00962012 
0.00173558 -0.0102344 0.00839147 0.00123853 -0.0164413 0.0103308 0.0137335 -0.0122874 0.00437297 
0.013019 -0.0118466 0.00189012 0.0107955 -0.0153123 0.00218943 0.0123555 -0.0123555 0.00110799 
0.00125027 -0.00433967 0.00977824 0.000353467 -0.00335121 0.00957721 0.0075403 -0.00193902 0.00397794 
0.008482 -0.000911683 0.00432892 0.00756029 -0.00217893 0.00367718 0.0100245 -0.000414375 0.00350773 
0.019071 -0.0107558 0.00477216 0.0128312 -0.00733334 0.00151506 0.0124402 -0.00937843 0.00458785 
0.0167267 -0.0105101 0.00114199 0.0092838 -0.0027135 0.00716973 0.00972695 -0.00161862 0.00811148 
0.00801625 -0.000142826 0.00503694 0.00767398 -0.00346294 0.00367412 0.00905194 -0.00420608 0.00270668 
0.0127893 -0.00447516 0.000707285 0.0074967 -0.00329793 0.00947029 0.00674334 -0.00142203 0.00847709 
0.00949046 -0.00102095 0.00949046 0.00101158 -0.0161008 0.0056339 0.00530011 -0.000733391 0.00843508 
0.00158797 -0.00693356 0.00972569 0.000712884 -0.0098338 0.00983381 0.00105232 -0.00668421 0.0106379 